-1 	-1 	0.05 	2.74184e-05
-0.984252 	-1 	0.05 	2.70575e-05
-0.968504 	-1 	0.05 	2.67103e-05
-0.952756 	-1 	0.05 	2.63169e-05
-0.937008 	-1 	0.05 	2.58182e-05
-0.92126 	-1 	0.05 	2.57078e-05
-0.905512 	-1 	0.05 	2.51237e-05
-0.889764 	-1 	0.05 	2.45397e-05
-0.874016 	-1 	0.05 	2.41954e-05
-0.858268 	-1 	0.05 	2.4613e-05
-0.84252 	-1 	0.05 	2.50305e-05
-0.826772 	-1 	0.05 	2.54568e-05
-0.811024 	-1 	0.05 	2.57846e-05
-0.795276 	-1 	0.05 	2.60124e-05
-0.779528 	-1 	0.05 	2.57307e-05
-0.76378 	-1 	0.05 	2.61741e-05
-0.748031 	-1 	0.05 	2.62583e-05
-0.732283 	-1 	0.05 	2.38275e-05
-0.716535 	-1 	0.05 	2.1233e-05
-0.700787 	-1 	0.05 	1.91223e-05
-0.685039 	-1 	0.05 	1.89474e-05
-0.669291 	-1 	0.05 	1.87725e-05
-0.653543 	-1 	0.05 	1.84993e-05
-0.637795 	-1 	0.05 	1.77314e-05
-0.622047 	-1 	0.05 	1.74937e-05
-0.606299 	-1 	0.05 	1.72813e-05
-0.590551 	-1 	0.05 	1.70689e-05
-0.574803 	-1 	0.05 	1.626e-05
-0.559055 	-1 	0.05 	1.58166e-05
-0.543307 	-1 	0.05 	1.52178e-05
-0.527559 	-1 	0.05 	1.40847e-05
-0.511811 	-1 	0.05 	1.26057e-05
-0.496063 	-1 	0.05 	1.14459e-05
-0.480315 	-1 	0.05 	1.10824e-05
-0.464567 	-1 	0.05 	1.15647e-05
-0.448819 	-1 	0.05 	1.1018e-05
-0.433071 	-1 	0.05 	1.04086e-05
-0.417323 	-1 	0.05 	9.43124e-06
-0.401575 	-1 	0.05 	7.95269e-06
-0.385827 	-1 	0.05 	6.47413e-06
-0.370079 	-1 	0.05 	4.71928e-06
-0.354331 	-1 	0.05 	2.97223e-06
-0.338583 	-1 	0.05 	1.79091e-06
-0.322835 	-1 	0.05 	1.66249e-06
-0.307087 	-1 	0.05 	1.34327e-06
-0.291339 	-1 	0.05 	-4.64105e-08
-0.275591 	-1 	0.05 	-1.56805e-06
-0.259843 	-1 	0.05 	-2.9107e-06
-0.244094 	-1 	0.05 	-4.21296e-06
-0.228346 	-1 	0.05 	-5.52168e-06
-0.212598 	-1 	0.05 	-6.74957e-06
-0.19685 	-1 	0.05 	-7.9779e-06
-0.181102 	-1 	0.05 	-9.13197e-06
-0.165354 	-1 	0.05 	-1.03332e-05
-0.149606 	-1 	0.05 	-1.18234e-05
-0.133858 	-1 	0.05 	-1.27412e-05
-0.11811 	-1 	0.05 	-1.3601e-05
-0.102362 	-1 	0.05 	-1.45138e-05
-0.0866142 	-1 	0.05 	-1.52565e-05
-0.0708661 	-1 	0.05 	-1.63044e-05
-0.0551181 	-1 	0.05 	-1.70979e-05
-0.0393701 	-1 	0.05 	-1.70076e-05
-0.023622 	-1 	0.05 	-1.93419e-05
-0.00787402 	-1 	0.05 	-2.18139e-05
0.00787402 	-1 	0.05 	-2.2953e-05
0.023622 	-1 	0.05 	-2.3401e-05
0.0393701 	-1 	0.05 	-2.37903e-05
0.0551181 	-1 	0.05 	-2.47648e-05
0.0708661 	-1 	0.05 	-2.5956e-05
0.0866142 	-1 	0.05 	-2.69469e-05
0.102362 	-1 	0.05 	-2.8082e-05
0.11811 	-1 	0.05 	-2.92057e-05
0.133858 	-1 	0.05 	-2.96105e-05
0.149606 	-1 	0.05 	-2.99296e-05
0.165354 	-1 	0.05 	-3.07771e-05
0.181102 	-1 	0.05 	-3.149e-05
0.19685 	-1 	0.05 	-3.03274e-05
0.212598 	-1 	0.05 	-3.21011e-05
0.228346 	-1 	0.05 	-3.51176e-05
0.244094 	-1 	0.05 	-3.64694e-05
0.259843 	-1 	0.05 	-3.74446e-05
0.275591 	-1 	0.05 	-3.76257e-05
0.291339 	-1 	0.05 	-3.73197e-05
0.307087 	-1 	0.05 	-3.74376e-05
0.322835 	-1 	0.05 	-3.88695e-05
0.338583 	-1 	0.05 	-4.0369e-05
0.354331 	-1 	0.05 	-4.18192e-05
0.370079 	-1 	0.05 	-4.2055e-05
0.385827 	-1 	0.05 	-4.22922e-05
0.401575 	-1 	0.05 	-4.25649e-05
0.417323 	-1 	0.05 	-4.28499e-05
0.433071 	-1 	0.05 	-4.31246e-05
0.448819 	-1 	0.05 	-4.33993e-05
0.464567 	-1 	0.05 	-4.36891e-05
0.480315 	-1 	0.05 	-4.41615e-05
0.496063 	-1 	0.05 	-4.48992e-05
0.511811 	-1 	0.05 	-4.56378e-05
0.527559 	-1 	0.05 	-4.63774e-05
0.543307 	-1 	0.05 	-4.63314e-05
0.559055 	-1 	0.05 	-4.59827e-05
0.574803 	-1 	0.05 	-4.58814e-05
0.590551 	-1 	0.05 	-4.578e-05
0.606299 	-1 	0.05 	-4.56786e-05
0.622047 	-1 	0.05 	-4.57903e-05
0.637795 	-1 	0.05 	-4.63758e-05
0.653543 	-1 	0.05 	-4.63687e-05
0.669291 	-1 	0.05 	-4.64893e-05
0.685039 	-1 	0.05 	-4.66098e-05
0.700787 	-1 	0.05 	-4.62584e-05
0.716535 	-1 	0.05 	-4.44969e-05
0.732283 	-1 	0.05 	-4.40676e-05
0.748031 	-1 	0.05 	-4.28904e-05
0.76378 	-1 	0.05 	-4.05982e-05
0.779528 	-1 	0.05 	-4.25435e-05
0.795276 	-1 	0.05 	-4.53234e-05
0.811024 	-1 	0.05 	-4.75847e-05
0.826772 	-1 	0.05 	-4.92634e-05
0.84252 	-1 	0.05 	-4.90503e-05
0.858268 	-1 	0.05 	-4.72939e-05
0.874016 	-1 	0.05 	-4.64302e-05
0.889764 	-1 	0.05 	-4.55665e-05
0.905512 	-1 	0.05 	-4.57474e-05
0.92126 	-1 	0.05 	-4.66173e-05
0.937008 	-1 	0.05 	-4.74787e-05
0.952756 	-1 	0.05 	-4.83006e-05
0.968504 	-1 	0.05 	-4.85946e-05
0.984252 	-1 	0.05 	-4.78142e-05
1 	-1 	0.05 	-4.59177e-05
-1 	-0.984252 	0.05 	2.8159e-05
-0.984252 	-0.984252 	0.05 	2.77896e-05
-0.968504 	-0.984252 	0.05 	2.74423e-05
-0.952756 	-0.984252 	0.05 	2.70951e-05
-0.937008 	-0.984252 	0.05 	2.67571e-05
-0.92126 	-0.984252 	0.05 	2.64492e-05
-0.905512 	-0.984252 	0.05 	2.60348e-05
-0.889764 	-0.984252 	0.05 	2.56204e-05
-0.874016 	-0.984252 	0.05 	2.5206e-05
-0.858268 	-0.984252 	0.05 	2.53232e-05
-0.84252 	-0.984252 	0.05 	2.57407e-05
-0.826772 	-0.984252 	0.05 	2.61698e-05
-0.811024 	-0.984252 	0.05 	2.65075e-05
-0.795276 	-0.984252 	0.05 	2.61283e-05
-0.779528 	-0.984252 	0.05 	2.57492e-05
-0.76378 	-0.984252 	0.05 	2.60805e-05
-0.748031 	-0.984252 	0.05 	2.5186e-05
-0.732283 	-0.984252 	0.05 	2.39803e-05
-0.716535 	-0.984252 	0.05 	2.26276e-05
-0.700787 	-0.984252 	0.05 	2.17057e-05
-0.685039 	-0.984252 	0.05 	2.1067e-05
-0.669291 	-0.984252 	0.05 	2.04282e-05
-0.653543 	-0.984252 	0.05 	1.95374e-05
-0.637795 	-0.984252 	0.05 	1.80997e-05
-0.622047 	-0.984252 	0.05 	1.71941e-05
-0.606299 	-0.984252 	0.05 	1.69216e-05
-0.590551 	-0.984252 	0.05 	1.66491e-05
-0.574803 	-0.984252 	0.05 	1.64111e-05
-0.559055 	-0.984252 	0.05 	1.5772e-05
-0.543307 	-0.984252 	0.05 	1.51466e-05
-0.527559 	-0.984252 	0.05 	1.4476e-05
-0.511811 	-0.984252 	0.05 	1.34796e-05
-0.496063 	-0.984252 	0.05 	1.26831e-05
-0.480315 	-0.984252 	0.05 	1.22098e-05
-0.464567 	-0.984252 	0.05 	1.24227e-05
-0.448819 	-0.984252 	0.05 	1.17743e-05
-0.433071 	-0.984252 	0.05 	1.13495e-05
-0.417323 	-0.984252 	0.05 	1.00171e-05
-0.401575 	-0.984252 	0.05 	9.3651e-06
-0.385827 	-0.984252 	0.05 	6.17776e-06
-0.370079 	-0.984252 	0.05 	3.71574e-06
-0.354331 	-0.984252 	0.05 	2.72929e-06
-0.338583 	-0.984252 	0.05 	2.32871e-06
-0.322835 	-0.984252 	0.05 	1.58705e-06
-0.307087 	-0.984252 	0.05 	1.09371e-06
-0.291339 	-0.984252 	0.05 	2.44336e-07
-0.275591 	-0.984252 	0.05 	-1.20703e-06
-0.259843 	-0.984252 	0.05 	-2.57299e-06
-0.244094 	-0.984252 	0.05 	-3.95396e-06
-0.228346 	-0.984252 	0.05 	-5.28689e-06
-0.212598 	-0.984252 	0.05 	-6.45854e-06
-0.19685 	-0.984252 	0.05 	-7.67108e-06
-0.181102 	-0.984252 	0.05 	-8.88373e-06
-0.165354 	-0.984252 	0.05 	-1.03171e-05
-0.149606 	-0.984252 	0.05 	-1.19293e-05
-0.133858 	-0.984252 	0.05 	-1.28601e-05
-0.11811 	-0.984252 	0.05 	-1.36159e-05
-0.102362 	-0.984252 	0.05 	-1.50731e-05
-0.0866142 	-0.984252 	0.05 	-1.58466e-05
-0.0708661 	-0.984252 	0.05 	-1.6686e-05
-0.0551181 	-0.984252 	0.05 	-1.74916e-05
-0.0393701 	-0.984252 	0.05 	-1.86166e-05
-0.023622 	-0.984252 	0.05 	-2.03914e-05
-0.00787402 	-0.984252 	0.05 	-2.24373e-05
0.00787402 	-0.984252 	0.05 	-2.18638e-05
0.023622 	-0.984252 	0.05 	-2.21716e-05
0.0393701 	-0.984252 	0.05 	-2.25053e-05
0.0551181 	-0.984252 	0.05 	-2.50398e-05
0.0708661 	-0.984252 	0.05 	-2.67899e-05
0.0866142 	-0.984252 	0.05 	-2.78269e-05
0.102362 	-0.984252 	0.05 	-2.86872e-05
0.11811 	-0.984252 	0.05 	-2.95076e-05
0.133858 	-0.984252 	0.05 	-2.96797e-05
0.149606 	-0.984252 	0.05 	-3.00867e-05
0.165354 	-0.984252 	0.05 	-3.04936e-05
0.181102 	-0.984252 	0.05 	-3.09608e-05
0.19685 	-0.984252 	0.05 	-3.14301e-05
0.212598 	-0.984252 	0.05 	-3.30263e-05
0.228346 	-0.984252 	0.05 	-3.48344e-05
0.244094 	-0.984252 	0.05 	-3.63211e-05
0.259843 	-0.984252 	0.05 	-3.72877e-05
0.275591 	-0.984252 	0.05 	-3.82543e-05
0.291339 	-0.984252 	0.05 	-3.84765e-05
0.307087 	-0.984252 	0.05 	-3.9564e-05
0.322835 	-0.984252 	0.05 	-4.1328e-05
0.338583 	-0.984252 	0.05 	-4.3323e-05
0.354331 	-0.984252 	0.05 	-4.25014e-05
0.370079 	-0.984252 	0.05 	-4.26468e-05
0.385827 	-0.984252 	0.05 	-4.29195e-05
0.401575 	-0.984252 	0.05 	-4.31455e-05
0.417323 	-0.984252 	0.05 	-4.34214e-05
0.433071 	-0.984252 	0.05 	-4.37951e-05
0.448819 	-0.984252 	0.05 	-4.41062e-05
0.464567 	-0.984252 	0.05 	-4.45511e-05
0.480315 	-0.984252 	0.05 	-4.50195e-05
0.496063 	-0.984252 	0.05 	-4.5512e-05
0.511811 	-0.984252 	0.05 	-4.61672e-05
0.527559 	-0.984252 	0.05 	-4.69173e-05
0.543307 	-0.984252 	0.05 	-4.68174e-05
0.559055 	-0.984252 	0.05 	-4.5797e-05
0.574803 	-0.984252 	0.05 	-4.52644e-05
0.590551 	-0.984252 	0.05 	-4.56158e-05
0.606299 	-0.984252 	0.05 	-4.57246e-05
0.622047 	-0.984252 	0.05 	-4.47874e-05
0.637795 	-0.984252 	0.05 	-4.86034e-05
0.653543 	-0.984252 	0.05 	-5.04068e-05
0.669291 	-0.984252 	0.05 	-5.0071e-05
0.685039 	-0.984252 	0.05 	-4.93761e-05
0.700787 	-0.984252 	0.05 	-4.71043e-05
0.716535 	-0.984252 	0.05 	-4.48328e-05
0.732283 	-0.984252 	0.05 	-4.44946e-05
0.748031 	-0.984252 	0.05 	-4.50065e-05
0.76378 	-0.984252 	0.05 	-4.3811e-05
0.779528 	-0.984252 	0.05 	-4.57226e-05
0.795276 	-0.984252 	0.05 	-4.63619e-05
0.811024 	-0.984252 	0.05 	-4.66479e-05
0.826772 	-0.984252 	0.05 	-4.7903e-05
0.84252 	-0.984252 	0.05 	-4.92591e-05
0.858268 	-0.984252 	0.05 	-4.76781e-05
0.874016 	-0.984252 	0.05 	-4.68143e-05
0.889764 	-0.984252 	0.05 	-4.66508e-05
0.905512 	-0.984252 	0.05 	-4.67354e-05
0.92126 	-0.984252 	0.05 	-4.75583e-05
0.937008 	-0.984252 	0.05 	-4.84153e-05
0.952756 	-0.984252 	0.05 	-4.92372e-05
0.968504 	-0.984252 	0.05 	-4.99276e-05
0.984252 	-0.984252 	0.05 	-4.88562e-05
1 	-0.984252 	0.05 	-4.69597e-05
-1 	-0.968504 	0.05 	2.88995e-05
-0.984252 	-0.968504 	0.05 	2.85391e-05
-0.968504 	-0.968504 	0.05 	2.82302e-05
-0.952756 	-0.968504 	0.05 	2.79284e-05
-0.937008 	-0.968504 	0.05 	2.76976e-05
-0.92126 	-0.968504 	0.05 	2.76414e-05
-0.905512 	-0.968504 	0.05 	2.71941e-05
-0.889764 	-0.968504 	0.05 	2.67512e-05
-0.874016 	-0.968504 	0.05 	2.63369e-05
-0.858268 	-0.968504 	0.05 	2.60335e-05
-0.84252 	-0.968504 	0.05 	2.64529e-05
-0.826772 	-0.968504 	0.05 	2.67965e-05
-0.811024 	-0.968504 	0.05 	2.64866e-05
-0.795276 	-0.968504 	0.05 	2.61768e-05
-0.779528 	-0.968504 	0.05 	2.58651e-05
-0.76378 	-0.968504 	0.05 	2.53196e-05
-0.748031 	-0.968504 	0.05 	2.45025e-05
-0.732283 	-0.968504 	0.05 	2.38265e-05
-0.716535 	-0.968504 	0.05 	2.30778e-05
-0.700787 	-0.968504 	0.05 	2.2611e-05
-0.685039 	-0.968504 	0.05 	2.23571e-05
-0.669291 	-0.968504 	0.05 	2.16654e-05
-0.653543 	-0.968504 	0.05 	2.03721e-05
-0.637795 	-0.968504 	0.05 	1.89498e-05
-0.622047 	-0.968504 	0.05 	1.73561e-05
-0.606299 	-0.968504 	0.05 	1.67497e-05
-0.590551 	-0.968504 	0.05 	1.69054e-05
-0.574803 	-0.968504 	0.05 	1.66933e-05
-0.559055 	-0.968504 	0.05 	1.59821e-05
-0.543307 	-0.968504 	0.05 	1.5343e-05
-0.527559 	-0.968504 	0.05 	1.50284e-05
-0.511811 	-0.968504 	0.05 	1.45796e-05
-0.496063 	-0.968504 	0.05 	1.38236e-05
-0.480315 	-0.968504 	0.05 	1.27255e-05
-0.464567 	-0.968504 	0.05 	1.22881e-05
-0.448819 	-0.968504 	0.05 	1.22896e-05
-0.433071 	-0.968504 	0.05 	1.20965e-05
-0.417323 	-0.968504 	0.05 	9.64319e-06
-0.401575 	-0.968504 	0.05 	8.42474e-06
-0.385827 	-0.968504 	0.05 	5.51315e-06
-0.370079 	-0.968504 	0.05 	3.18244e-06
-0.354331 	-0.968504 	0.05 	2.67141e-06
-0.338583 	-0.968504 	0.05 	3.12478e-06
-0.322835 	-0.968504 	0.05 	2.67868e-06
-0.307087 	-0.968504 	0.05 	1.63161e-06
-0.291339 	-0.968504 	0.05 	5.31638e-07
-0.275591 	-0.968504 	0.05 	-9.39252e-07
-0.259843 	-0.968504 	0.05 	-2.38562e-06
-0.244094 	-0.968504 	0.05 	-3.80311e-06
-0.228346 	-0.968504 	0.05 	-5.05144e-06
-0.212598 	-0.968504 	0.05 	-6.18755e-06
-0.19685 	-0.968504 	0.05 	-7.4011e-06
-0.181102 	-0.968504 	0.05 	-8.58263e-06
-0.165354 	-0.968504 	0.05 	-9.85672e-06
-0.149606 	-0.968504 	0.05 	-1.13102e-05
-0.133858 	-0.968504 	0.05 	-1.25456e-05
-0.11811 	-0.968504 	0.05 	-1.37596e-05
-0.102362 	-0.968504 	0.05 	-1.56208e-05
-0.0866142 	-0.968504 	0.05 	-1.66074e-05
-0.0708661 	-0.968504 	0.05 	-1.72819e-05
-0.0551181 	-0.968504 	0.05 	-1.79807e-05
-0.0393701 	-0.968504 	0.05 	-2.13828e-05
-0.023622 	-0.968504 	0.05 	-2.35981e-05
-0.00787402 	-0.968504 	0.05 	-2.34619e-05
0.00787402 	-0.968504 	0.05 	-2.2292e-05
0.023622 	-0.968504 	0.05 	-2.16802e-05
0.0393701 	-0.968504 	0.05 	-2.27802e-05
0.0551181 	-0.968504 	0.05 	-2.53147e-05
0.0708661 	-0.968504 	0.05 	-2.71254e-05
0.0866142 	-0.968504 	0.05 	-2.88013e-05
0.102362 	-0.968504 	0.05 	-2.97866e-05
0.11811 	-0.968504 	0.05 	-3.0492e-05
0.133858 	-0.968504 	0.05 	-3.03684e-05
0.149606 	-0.968504 	0.05 	-3.06179e-05
0.165354 	-0.968504 	0.05 	-3.08689e-05
0.181102 	-0.968504 	0.05 	-3.16407e-05
0.19685 	-0.968504 	0.05 	-3.33271e-05
0.212598 	-0.968504 	0.05 	-3.49001e-05
0.228346 	-0.968504 	0.05 	-3.62646e-05
0.244094 	-0.968504 	0.05 	-3.71206e-05
0.259843 	-0.968504 	0.05 	-3.79489e-05
0.275591 	-0.968504 	0.05 	-3.87968e-05
0.291339 	-0.968504 	0.05 	-3.87224e-05
0.307087 	-0.968504 	0.05 	-4.15063e-05
0.322835 	-0.968504 	0.05 	-4.46177e-05
0.338583 	-0.968504 	0.05 	-4.54231e-05
0.354331 	-0.968504 	0.05 	-4.36093e-05
0.370079 	-0.968504 	0.05 	-4.35219e-05
0.385827 	-0.968504 	0.05 	-4.35931e-05
0.401575 	-0.968504 	0.05 	-4.37111e-05
0.417323 	-0.968504 	0.05 	-4.39588e-05
0.433071 	-0.968504 	0.05 	-4.43527e-05
0.448819 	-0.968504 	0.05 	-4.49083e-05
0.464567 	-0.968504 	0.05 	-4.54131e-05
0.480315 	-0.968504 	0.05 	-4.58775e-05
0.496063 	-0.968504 	0.05 	-4.63689e-05
0.511811 	-0.968504 	0.05 	-4.68587e-05
0.527559 	-0.968504 	0.05 	-4.74572e-05
0.543307 	-0.968504 	0.05 	-4.73033e-05
0.559055 	-0.968504 	0.05 	-4.64738e-05
0.574803 	-0.968504 	0.05 	-4.57752e-05
0.590551 	-0.968504 	0.05 	-4.60598e-05
0.606299 	-0.968504 	0.05 	-4.39037e-05
0.622047 	-0.968504 	0.05 	-4.37845e-05
0.637795 	-0.968504 	0.05 	-4.75727e-05
0.653543 	-0.968504 	0.05 	-5.14181e-05
0.669291 	-0.968504 	0.05 	-5.36652e-05
0.685039 	-0.968504 	0.05 	-5.13933e-05
0.700787 	-0.968504 	0.05 	-4.91213e-05
0.716535 	-0.968504 	0.05 	-4.70397e-05
0.732283 	-0.968504 	0.05 	-4.68132e-05
0.748031 	-0.968504 	0.05 	-4.65867e-05
0.76378 	-0.968504 	0.05 	-4.60286e-05
0.779528 	-0.968504 	0.05 	-4.67713e-05
0.795276 	-0.968504 	0.05 	-4.74106e-05
0.811024 	-0.968504 	0.05 	-4.77396e-05
0.826772 	-0.968504 	0.05 	-4.79382e-05
0.84252 	-0.968504 	0.05 	-4.82213e-05
0.858268 	-0.968504 	0.05 	-4.8099e-05
0.874016 	-0.968504 	0.05 	-4.81835e-05
0.889764 	-0.968504 	0.05 	-4.82681e-05
0.905512 	-0.968504 	0.05 	-4.83527e-05
0.92126 	-0.968504 	0.05 	-4.84993e-05
0.937008 	-0.968504 	0.05 	-4.93519e-05
0.952756 	-0.968504 	0.05 	-4.96889e-05
0.968504 	-0.968504 	0.05 	-4.93988e-05
0.984252 	-0.968504 	0.05 	-4.91086e-05
1 	-0.968504 	0.05 	-4.80017e-05
-1 	-0.952756 	0.05 	2.97492e-05
-0.984252 	-0.952756 	0.05 	2.94175e-05
-0.968504 	-0.952756 	0.05 	2.90998e-05
-0.952756 	-0.952756 	0.05 	2.8798e-05
-0.937008 	-0.952756 	0.05 	2.87367e-05
-0.92126 	-0.952756 	0.05 	2.87379e-05
-0.905512 	-0.952756 	0.05 	2.83905e-05
-0.889764 	-0.952756 	0.05 	2.79432e-05
-0.874016 	-0.952756 	0.05 	2.74959e-05
-0.858268 	-0.952756 	0.05 	2.70533e-05
-0.84252 	-0.952756 	0.05 	2.70847e-05
-0.826772 	-0.952756 	0.05 	2.67748e-05
-0.811024 	-0.952756 	0.05 	2.63363e-05
-0.795276 	-0.952756 	0.05 	2.58864e-05
-0.779528 	-0.952756 	0.05 	2.54509e-05
-0.76378 	-0.952756 	0.05 	2.55954e-05
-0.748031 	-0.952756 	0.05 	2.52196e-05
-0.732283 	-0.952756 	0.05 	2.45435e-05
-0.716535 	-0.952756 	0.05 	2.36702e-05
-0.700787 	-0.952756 	0.05 	2.30126e-05
-0.685039 	-0.952756 	0.05 	2.28159e-05
-0.669291 	-0.952756 	0.05 	2.2288e-05
-0.653543 	-0.952756 	0.05 	2.12069e-05
-0.637795 	-0.952756 	0.05 	1.97999e-05
-0.622047 	-0.952756 	0.05 	1.8345e-05
-0.606299 	-0.952756 	0.05 	1.73685e-05
-0.590551 	-0.952756 	0.05 	1.72964e-05
-0.574803 	-0.952756 	0.05 	1.69816e-05
-0.559055 	-0.952756 	0.05 	1.63166e-05
-0.543307 	-0.952756 	0.05 	1.59647e-05
-0.527559 	-0.952756 	0.05 	1.56561e-05
-0.511811 	-0.952756 	0.05 	1.53904e-05
-0.496063 	-0.952756 	0.05 	1.46528e-05
-0.480315 	-0.952756 	0.05 	1.34695e-05
-0.464567 	-0.952756 	0.05 	1.21053e-05
-0.448819 	-0.952756 	0.05 	1.23216e-05
-0.433071 	-0.952756 	0.05 	1.13609e-05
-0.417323 	-0.952756 	0.05 	9.73168e-06
-0.401575 	-0.952756 	0.05 	7.15689e-06
-0.385827 	-0.952756 	0.05 	4.49313e-06
-0.370079 	-0.952756 	0.05 	4.80231e-06
-0.354331 	-0.952756 	0.05 	3.76563e-06
-0.338583 	-0.952756 	0.05 	3.92085e-06
-0.322835 	-0.952756 	0.05 	3.78816e-06
-0.307087 	-0.952756 	0.05 	2.37684e-06
-0.291339 	-0.952756 	0.05 	8.26525e-07
-0.275591 	-0.952756 	0.05 	-8.49601e-07
-0.259843 	-0.952756 	0.05 	-2.24851e-06
-0.244094 	-0.952756 	0.05 	-3.64741e-06
-0.228346 	-0.952756 	0.05 	-4.82256e-06
-0.212598 	-0.952756 	0.05 	-5.96572e-06
-0.19685 	-0.952756 	0.05 	-7.14949e-06
-0.181102 	-0.952756 	0.05 	-8.12277e-06
-0.165354 	-0.952756 	0.05 	-9.00782e-06
-0.149606 	-0.952756 	0.05 	-1.05627e-05
-0.133858 	-0.952756 	0.05 	-1.21176e-05
-0.11811 	-0.952756 	0.05 	-1.36412e-05
-0.102362 	-0.952756 	0.05 	-1.5163e-05
-0.0866142 	-0.952756 	0.05 	-1.62355e-05
-0.0708661 	-0.952756 	0.05 	-1.66169e-05
-0.0551181 	-0.952756 	0.05 	-1.63603e-05
-0.0393701 	-0.952756 	0.05 	-1.99604e-05
-0.023622 	-0.952756 	0.05 	-2.35517e-05
-0.00787402 	-0.952756 	0.05 	-2.43224e-05
0.00787402 	-0.952756 	0.05 	-2.299e-05
0.023622 	-0.952756 	0.05 	-2.31561e-05
0.0393701 	-0.952756 	0.05 	-2.41842e-05
0.0551181 	-0.952756 	0.05 	-2.55896e-05
0.0708661 	-0.952756 	0.05 	-2.7477e-05
0.0866142 	-0.952756 	0.05 	-2.91944e-05
0.102362 	-0.952756 	0.05 	-3.09083e-05
0.11811 	-0.952756 	0.05 	-3.14764e-05
0.133858 	-0.952756 	0.05 	-3.1332e-05
0.149606 	-0.952756 	0.05 	-3.13548e-05
0.165354 	-0.952756 	0.05 	-3.09788e-05
0.181102 	-0.952756 	0.05 	-3.06093e-05
0.19685 	-0.952756 	0.05 	-3.41998e-05
0.212598 	-0.952756 	0.05 	-3.62177e-05
0.228346 	-0.952756 	0.05 	-3.76375e-05
0.244094 	-0.952756 	0.05 	-3.85619e-05
0.259843 	-0.952756 	0.05 	-3.87849e-05
0.275591 	-0.952756 	0.05 	-3.92122e-05
0.291339 	-0.952756 	0.05 	-3.82795e-05
0.307087 	-0.952756 	0.05 	-4.00136e-05
0.322835 	-0.952756 	0.05 	-4.31613e-05
0.338583 	-0.952756 	0.05 	-4.43236e-05
0.354331 	-0.952756 	0.05 	-4.48501e-05
0.370079 	-0.952756 	0.05 	-4.43892e-05
0.385827 	-0.952756 	0.05 	-4.44108e-05
0.401575 	-0.952756 	0.05 	-4.44324e-05
0.417323 	-0.952756 	0.05 	-4.4511e-05
0.433071 	-0.952756 	0.05 	-4.50665e-05
0.448819 	-0.952756 	0.05 	-4.56219e-05
0.464567 	-0.952756 	0.05 	-4.61774e-05
0.480315 	-0.952756 	0.05 	-4.67683e-05
0.496063 	-0.952756 	0.05 	-4.72636e-05
0.511811 	-0.952756 	0.05 	-4.77588e-05
0.527559 	-0.952756 	0.05 	-4.8254e-05
0.543307 	-0.952756 	0.05 	-4.87587e-05
0.559055 	-0.952756 	0.05 	-4.79933e-05
0.574803 	-0.952756 	0.05 	-4.7228e-05
0.590551 	-0.952756 	0.05 	-4.49784e-05
0.606299 	-0.952756 	0.05 	-4.22928e-05
0.622047 	-0.952756 	0.05 	-4.27816e-05
0.637795 	-0.952756 	0.05 	-4.65614e-05
0.653543 	-0.952756 	0.05 	-5.03874e-05
0.669291 	-0.952756 	0.05 	-5.13894e-05
0.685039 	-0.952756 	0.05 	-5.11844e-05
0.700787 	-0.952756 	0.05 	-5.09794e-05
0.716535 	-0.952756 	0.05 	-4.99646e-05
0.732283 	-0.952756 	0.05 	-4.95293e-05
0.748031 	-0.952756 	0.05 	-4.9094e-05
0.76378 	-0.952756 	0.05 	-4.75044e-05
0.779528 	-0.952756 	0.05 	-4.72527e-05
0.795276 	-0.952756 	0.05 	-4.81317e-05
0.811024 	-0.952756 	0.05 	-4.8458e-05
0.826772 	-0.952756 	0.05 	-4.85655e-05
0.84252 	-0.952756 	0.05 	-4.82797e-05
0.858268 	-0.952756 	0.05 	-4.93826e-05
0.874016 	-0.952756 	0.05 	-5.03128e-05
0.889764 	-0.952756 	0.05 	-5.03198e-05
0.905512 	-0.952756 	0.05 	-5.03269e-05
0.92126 	-0.952756 	0.05 	-5.03339e-05
0.937008 	-0.952756 	0.05 	-4.95789e-05
0.952756 	-0.952756 	0.05 	-4.91991e-05
0.968504 	-0.952756 	0.05 	-4.887e-05
0.984252 	-0.952756 	0.05 	-4.85799e-05
1 	-0.952756 	0.05 	-4.82897e-05
-1 	-0.937008 	0.05 	3.05338e-05
-0.984252 	-0.937008 	0.05 	3.02959e-05
-0.968504 	-0.937008 	0.05 	2.99694e-05
-0.952756 	-0.937008 	0.05 	2.97747e-05
-0.937008 	-0.937008 	0.05 	2.97759e-05
-0.92126 	-0.937008 	0.05 	2.97771e-05
-0.905512 	-0.937008 	0.05 	2.95868e-05
-0.889764 	-0.937008 	0.05 	2.90634e-05
-0.874016 	-0.937008 	0.05 	2.8534e-05
-0.858268 	-0.937008 	0.05 	2.80112e-05
-0.84252 	-0.937008 	0.05 	2.74794e-05
-0.826772 	-0.937008 	0.05 	2.62158e-05
-0.811024 	-0.937008 	0.05 	2.56928e-05
-0.795276 	-0.937008 	0.05 	2.52429e-05
-0.779528 	-0.937008 	0.05 	2.52952e-05
-0.76378 	-0.937008 	0.05 	2.56324e-05
-0.748031 	-0.937008 	0.05 	2.53294e-05
-0.732283 	-0.937008 	0.05 	2.48865e-05
-0.716535 	-0.937008 	0.05 	2.42625e-05
-0.700787 	-0.937008 	0.05 	2.34143e-05
-0.685039 	-0.937008 	0.05 	2.3039e-05
-0.669291 	-0.937008 	0.05 	2.24013e-05
-0.653543 	-0.937008 	0.05 	2.17635e-05
-0.637795 	-0.937008 	0.05 	2.07159e-05
-0.622047 	-0.937008 	0.05 	1.97393e-05
-0.606299 	-0.937008 	0.05 	1.87628e-05
-0.590551 	-0.937008 	0.05 	1.77862e-05
-0.574803 	-0.937008 	0.05 	1.73957e-05
-0.559055 	-0.937008 	0.05 	1.70047e-05
-0.543307 	-0.937008 	0.05 	1.66136e-05
-0.527559 	-0.937008 	0.05 	1.62839e-05
-0.511811 	-0.937008 	0.05 	1.5786e-05
-0.496063 	-0.937008 	0.05 	1.52622e-05
-0.480315 	-0.937008 	0.05 	1.44336e-05
-0.464567 	-0.937008 	0.05 	1.3587e-05
-0.448819 	-0.937008 	0.05 	1.26076e-05
-0.433071 	-0.937008 	0.05 	1.14488e-05
-0.417323 	-0.937008 	0.05 	1.0195e-05
-0.401575 	-0.937008 	0.05 	7.86934e-06
-0.385827 	-0.937008 	0.05 	4.7336e-06
-0.370079 	-0.937008 	0.05 	4.60697e-06
-0.354331 	-0.937008 	0.05 	4.83137e-06
-0.338583 	-0.937008 	0.05 	4.26816e-06
-0.322835 	-0.937008 	0.05 	3.61026e-06
-0.307087 	-0.937008 	0.05 	2.72287e-06
-0.291339 	-0.937008 	0.05 	1.09774e-06
-0.275591 	-0.937008 	0.05 	-6.96995e-07
-0.259843 	-0.937008 	0.05 	-2.05047e-06
-0.244094 	-0.937008 	0.05 	-3.39904e-06
-0.228346 	-0.937008 	0.05 	-4.86869e-06
-0.212598 	-0.937008 	0.05 	-5.83842e-06
-0.19685 	-0.937008 	0.05 	-6.89789e-06
-0.181102 	-0.937008 	0.05 	-7.77977e-06
-0.165354 	-0.937008 	0.05 	-8.82378e-06
-0.149606 	-0.937008 	0.05 	-1.04792e-05
-0.133858 	-0.937008 	0.05 	-1.1862e-05
-0.11811 	-0.937008 	0.05 	-1.28433e-05
-0.102362 	-0.937008 	0.05 	-1.41423e-05
-0.0866142 	-0.937008 	0.05 	-1.55705e-05
-0.0708661 	-0.937008 	0.05 	-1.54356e-05
-0.0551181 	-0.937008 	0.05 	-1.51428e-05
-0.0393701 	-0.937008 	0.05 	-1.85801e-05
-0.023622 	-0.937008 	0.05 	-2.15194e-05
-0.00787402 	-0.937008 	0.05 	-2.25564e-05
0.00787402 	-0.937008 	0.05 	-2.3522e-05
0.023622 	-0.937008 	0.05 	-2.40897e-05
0.0393701 	-0.937008 	0.05 	-2.49811e-05
0.0551181 	-0.937008 	0.05 	-2.62145e-05
0.0708661 	-0.937008 	0.05 	-2.84362e-05
0.0866142 	-0.937008 	0.05 	-3.00975e-05
0.102362 	-0.937008 	0.05 	-3.17587e-05
0.11811 	-0.937008 	0.05 	-3.33052e-05
0.133858 	-0.937008 	0.05 	-3.27819e-05
0.149606 	-0.937008 	0.05 	-3.21873e-05
0.165354 	-0.937008 	0.05 	-2.97609e-05
0.181102 	-0.937008 	0.05 	-2.92307e-05
0.19685 	-0.937008 	0.05 	-3.36391e-05
0.212598 	-0.937008 	0.05 	-3.66746e-05
0.228346 	-0.937008 	0.05 	-3.85074e-05
0.244094 	-0.937008 	0.05 	-3.99401e-05
0.259843 	-0.937008 	0.05 	-3.94244e-05
0.275591 	-0.937008 	0.05 	-3.92165e-05
0.291339 	-0.937008 	0.05 	-3.85903e-05
0.307087 	-0.937008 	0.05 	-3.96503e-05
0.322835 	-0.937008 	0.05 	-4.2995e-05
0.338583 	-0.937008 	0.05 	-4.41047e-05
0.354331 	-0.937008 	0.05 	-4.47926e-05
0.370079 	-0.937008 	0.05 	-4.45175e-05
0.385827 	-0.937008 	0.05 	-4.41659e-05
0.401575 	-0.937008 	0.05 	-4.41529e-05
0.417323 	-0.937008 	0.05 	-4.50409e-05
0.433071 	-0.937008 	0.05 	-4.575e-05
0.448819 	-0.937008 	0.05 	-4.63338e-05
0.464567 	-0.937008 	0.05 	-4.6958e-05
0.480315 	-0.937008 	0.05 	-4.76284e-05
0.496063 	-0.937008 	0.05 	-4.82935e-05
0.511811 	-0.937008 	0.05 	-4.88089e-05
0.527559 	-0.937008 	0.05 	-4.94188e-05
0.543307 	-0.937008 	0.05 	-5.0512e-05
0.559055 	-0.937008 	0.05 	-5.15633e-05
0.574803 	-0.937008 	0.05 	-4.94709e-05
0.590551 	-0.937008 	0.05 	-4.6736e-05
0.606299 	-0.937008 	0.05 	-4.42839e-05
0.622047 	-0.937008 	0.05 	-4.53867e-05
0.637795 	-0.937008 	0.05 	-4.64896e-05
0.653543 	-0.937008 	0.05 	-4.90617e-05
0.669291 	-0.937008 	0.05 	-4.92701e-05
0.685039 	-0.937008 	0.05 	-5.02684e-05
0.700787 	-0.937008 	0.05 	-5.11819e-05
0.716535 	-0.937008 	0.05 	-5.08716e-05
0.732283 	-0.937008 	0.05 	-5.15523e-05
0.748031 	-0.937008 	0.05 	-5.15745e-05
0.76378 	-0.937008 	0.05 	-4.94456e-05
0.779528 	-0.937008 	0.05 	-4.75979e-05
0.795276 	-0.937008 	0.05 	-4.84769e-05
0.811024 	-0.937008 	0.05 	-4.86311e-05
0.826772 	-0.937008 	0.05 	-4.80705e-05
0.84252 	-0.937008 	0.05 	-4.6683e-05
0.858268 	-0.937008 	0.05 	-4.88519e-05
0.874016 	-0.937008 	0.05 	-5.11494e-05
0.889764 	-0.937008 	0.05 	-5.28938e-05
0.905512 	-0.937008 	0.05 	-5.23444e-05
0.92126 	-0.937008 	0.05 	-5.0488e-05
0.937008 	-0.937008 	0.05 	-4.97045e-05
0.952756 	-0.937008 	0.05 	-4.93501e-05
0.968504 	-0.937008 	0.05 	-4.89703e-05
0.984252 	-0.937008 	0.05 	-4.85904e-05
1 	-0.937008 	0.05 	-4.82105e-05
-1 	-0.92126 	0.05 	3.07805e-05
-0.984252 	-0.92126 	0.05 	3.07804e-05
-0.968504 	-0.92126 	0.05 	3.07898e-05
-0.952756 	-0.92126 	0.05 	3.07288e-05
-0.937008 	-0.92126 	0.05 	3.06494e-05
-0.92126 	-0.92126 	0.05 	3.057e-05
-0.905512 	-0.92126 	0.05 	3.0353e-05
-0.889764 	-0.92126 	0.05 	2.98235e-05
-0.874016 	-0.92126 	0.05 	2.9294e-05
-0.858268 	-0.92126 	0.05 	2.89865e-05
-0.84252 	-0.92126 	0.05 	2.84343e-05
-0.826772 	-0.92126 	0.05 	2.74908e-05
-0.811024 	-0.92126 	0.05 	2.62273e-05
-0.795276 	-0.92126 	0.05 	2.51138e-05
-0.779528 	-0.92126 	0.05 	2.51396e-05
-0.76378 	-0.92126 	0.05 	2.54768e-05
-0.748031 	-0.92126 	0.05 	2.54219e-05
-0.732283 	-0.92126 	0.05 	2.488e-05
-0.716535 	-0.92126 	0.05 	2.43137e-05
-0.700787 	-0.92126 	0.05 	2.37552e-05
-0.685039 	-0.92126 	0.05 	2.34042e-05
-0.669291 	-0.92126 	0.05 	2.28517e-05
-0.653543 	-0.92126 	0.05 	2.22993e-05
-0.637795 	-0.92126 	0.05 	2.21559e-05
-0.622047 	-0.92126 	0.05 	2.13117e-05
-0.606299 	-0.92126 	0.05 	2.03326e-05
-0.590551 	-0.92126 	0.05 	1.92945e-05
-0.574803 	-0.92126 	0.05 	1.7204e-05
-0.559055 	-0.92126 	0.05 	1.686e-05
-0.543307 	-0.92126 	0.05 	1.65161e-05
-0.527559 	-0.92126 	0.05 	1.7303e-05
-0.511811 	-0.92126 	0.05 	1.71811e-05
-0.496063 	-0.92126 	0.05 	1.67623e-05
-0.480315 	-0.92126 	0.05 	1.51504e-05
-0.464567 	-0.92126 	0.05 	1.40412e-05
-0.448819 	-0.92126 	0.05 	1.30459e-05
-0.433071 	-0.92126 	0.05 	1.1938e-05
-0.417323 	-0.92126 	0.05 	1.05976e-05
-0.401575 	-0.92126 	0.05 	9.16062e-06
-0.385827 	-0.92126 	0.05 	7.94127e-06
-0.370079 	-0.92126 	0.05 	7.40118e-06
-0.354331 	-0.92126 	0.05 	5.58762e-06
-0.338583 	-0.92126 	0.05 	4.60632e-06
-0.322835 	-0.92126 	0.05 	3.73927e-06
-0.307087 	-0.92126 	0.05 	2.87221e-06
-0.291339 	-0.92126 	0.05 	1.48848e-06
-0.275591 	-0.92126 	0.05 	-1.42798e-07
-0.259843 	-0.92126 	0.05 	-1.68587e-06
-0.244094 	-0.92126 	0.05 	-3.19207e-06
-0.228346 	-0.92126 	0.05 	-4.98439e-06
-0.212598 	-0.92126 	0.05 	-5.80215e-06
-0.19685 	-0.92126 	0.05 	-6.63946e-06
-0.181102 	-0.92126 	0.05 	-8.00972e-06
-0.165354 	-0.92126 	0.05 	-9.36181e-06
-0.149606 	-0.92126 	0.05 	-1.06943e-05
-0.133858 	-0.92126 	0.05 	-1.14863e-05
-0.11811 	-0.92126 	0.05 	-1.22328e-05
-0.102362 	-0.92126 	0.05 	-1.36732e-05
-0.0866142 	-0.92126 	0.05 	-1.52626e-05
-0.0708661 	-0.92126 	0.05 	-1.66599e-05
-0.0551181 	-0.92126 	0.05 	-1.7268e-05
-0.0393701 	-0.92126 	0.05 	-1.91277e-05
-0.023622 	-0.92126 	0.05 	-2.15148e-05
-0.00787402 	-0.92126 	0.05 	-2.31392e-05
0.00787402 	-0.92126 	0.05 	-2.38622e-05
0.023622 	-0.92126 	0.05 	-2.39876e-05
0.0393701 	-0.92126 	0.05 	-2.44592e-05
0.0551181 	-0.92126 	0.05 	-2.73754e-05
0.0708661 	-0.92126 	0.05 	-2.97469e-05
0.0866142 	-0.92126 	0.05 	-3.1668e-05
0.102362 	-0.92126 	0.05 	-3.26481e-05
0.11811 	-0.92126 	0.05 	-3.43556e-05
0.133858 	-0.92126 	0.05 	-3.65883e-05
0.149606 	-0.92126 	0.05 	-3.46812e-05
0.165354 	-0.92126 	0.05 	-3.20686e-05
0.181102 	-0.92126 	0.05 	-3.22005e-05
0.19685 	-0.92126 	0.05 	-3.58739e-05
0.212598 	-0.92126 	0.05 	-3.79384e-05
0.228346 	-0.92126 	0.05 	-3.95061e-05
0.244094 	-0.92126 	0.05 	-4.15131e-05
0.259843 	-0.92126 	0.05 	-4.06773e-05
0.275591 	-0.92126 	0.05 	-4.01629e-05
0.291339 	-0.92126 	0.05 	-4.12735e-05
0.307087 	-0.92126 	0.05 	-4.15536e-05
0.322835 	-0.92126 	0.05 	-4.3494e-05
0.338583 	-0.92126 	0.05 	-4.46126e-05
0.354331 	-0.92126 	0.05 	-4.51651e-05
0.370079 	-0.92126 	0.05 	-4.49351e-05
0.385827 	-0.92126 	0.05 	-4.4266e-05
0.401575 	-0.92126 	0.05 	-4.46493e-05
0.417323 	-0.92126 	0.05 	-4.55432e-05
0.433071 	-0.92126 	0.05 	-4.62596e-05
0.448819 	-0.92126 	0.05 	-4.70475e-05
0.464567 	-0.92126 	0.05 	-4.77953e-05
0.480315 	-0.92126 	0.05 	-4.8466e-05
0.496063 	-0.92126 	0.05 	-4.91427e-05
0.511811 	-0.92126 	0.05 	-4.99297e-05
0.527559 	-0.92126 	0.05 	-5.06022e-05
0.543307 	-0.92126 	0.05 	-5.16952e-05
0.559055 	-0.92126 	0.05 	-5.15835e-05
0.574803 	-0.92126 	0.05 	-5.05041e-05
0.590551 	-0.92126 	0.05 	-4.84971e-05
0.606299 	-0.92126 	0.05 	-4.81476e-05
0.622047 	-0.92126 	0.05 	-4.83819e-05
0.637795 	-0.92126 	0.05 	-4.79681e-05
0.653543 	-0.92126 	0.05 	-4.89472e-05
0.669291 	-0.92126 	0.05 	-5.03675e-05
0.685039 	-0.92126 	0.05 	-5.1498e-05
0.700787 	-0.92126 	0.05 	-5.15978e-05
0.716535 	-0.92126 	0.05 	-5.09119e-05
0.732283 	-0.92126 	0.05 	-5.14067e-05
0.748031 	-0.92126 	0.05 	-5.13834e-05
0.76378 	-0.92126 	0.05 	-5.06135e-05
0.779528 	-0.92126 	0.05 	-4.92261e-05
0.795276 	-0.92126 	0.05 	-4.86967e-05
0.811024 	-0.92126 	0.05 	-4.78613e-05
0.826772 	-0.92126 	0.05 	-4.64704e-05
0.84252 	-0.92126 	0.05 	-4.61888e-05
0.858268 	-0.92126 	0.05 	-4.83577e-05
0.874016 	-0.92126 	0.05 	-5.06068e-05
0.889764 	-0.92126 	0.05 	-5.23565e-05
0.905512 	-0.92126 	0.05 	-5.21231e-05
0.92126 	-0.92126 	0.05 	-5.02667e-05
0.937008 	-0.92126 	0.05 	-4.98165e-05
0.952756 	-0.92126 	0.05 	-4.94909e-05
0.968504 	-0.92126 	0.05 	-4.91214e-05
0.984252 	-0.92126 	0.05 	-4.88056e-05
1 	-0.92126 	0.05 	-4.86743e-05
-1 	-0.905512 	0.05 	3.14483e-05
-0.984252 	-0.905512 	0.05 	3.17177e-05
-0.968504 	-0.905512 	0.05 	3.18224e-05
-0.952756 	-0.905512 	0.05 	3.16032e-05
-0.937008 	-0.905512 	0.05 	3.13649e-05
-0.92126 	-0.905512 	0.05 	3.12855e-05
-0.905512 	-0.905512 	0.05 	3.1113e-05
-0.889764 	-0.905512 	0.05 	3.05835e-05
-0.874016 	-0.905512 	0.05 	3.02459e-05