# Forces     
# CofR       : (0.000000e+00 0.000000e+00 0.000000e+00)
# Time       forces(pressure viscous porous)	moments(pressure viscous porous)
0.5          	((4.352140e-02 1.157423e-04 1.216582e-21) (4.593076e-03 4.094500e-07 -4.440275e-22) (0.000000e+00 0.000000e+00 0.000000e+00)) ((-5.787117e-06 2.176070e-03 -9.854921e-10) (-2.047250e-08 2.296538e-04 9.640790e-10) (0.000000e+00 0.000000e+00 0.000000e+00))
1            	((3.356388e-02 9.484210e-05 9.379699e-22) (2.009351e-03 1.202906e-06 -3.223862e-22) (0.000000e+00 0.000000e+00 0.000000e+00)) ((-4.742105e-06 1.678194e-03 -6.651846e-10) (-6.014530e-08 1.004676e-04 -9.239871e-09) (0.000000e+00 0.000000e+00 0.000000e+00))
1.5          	((-3.473201e-03 2.324144e-06 -9.793751e-23) (7.588191e-04 7.959044e-07 4.853368e-23) (0.000000e+00 0.000000e+00 0.000000e+00)) ((-1.162072e-07 -1.736600e-04 -1.230257e-10) (-3.979522e-08 3.794095e-05 -2.107237e-08) (0.000000e+00 0.000000e+00 0.000000e+00))
2            	((-2.504036e-02 -5.578447e-05 -7.010114e-22) (5.079622e-04 -1.284820e-07 2.527439e-22) (0.000000e+00 0.000000e+00 0.000000e+00)) ((2.789224e-06 -1.252018e-03 -1.601801e-10) (6.424101e-09 2.539811e-05 -3.017382e-08) (0.000000e+00 0.000000e+00 0.000000e+00))
2.5          	((-1.638435e-02 -4.053966e-05 -4.584070e-22) (7.421709e-04 -5.340274e-07 1.578686e-22) (0.000000e+00 0.000000e+00 0.000000e+00)) ((2.026983e-06 -8.192176e-04 -6.013155e-10) (2.670137e-08 3.710855e-05 -3.274038e-08) (0.000000e+00 0.000000e+00 0.000000e+00))
3            	((4.799259e-03 7.966327e-06 1.346840e-22) (9.536298e-04 -2.062598e-07 -5.324105e-23) (0.000000e+00 0.000000e+00 0.000000e+00)) ((-3.983164e-07 2.399629e-04 -7.997629e-10) (1.031299e-08 4.768149e-05 -2.809075e-08) (0.000000e+00 0.000000e+00 0.000000e+00))
3.5          	((1.495155e-02 3.437744e-05 4.188356e-22) (9.168442e-04 3.780770e-07 -1.495752e-22) (0.000000e+00 0.000000e+00 0.000000e+00)) ((-1.718872e-06 7.475777e-04 -4.401118e-10) (-1.890385e-08 4.584221e-05 -1.996459e-08) (0.000000e+00 0.000000e+00 0.000000e+00))
4            	((8.195984e-03 2.271386e-05 2.295512e-22) (7.127962e-04 7.295030e-07 -7.911606e-23) (0.000000e+00 0.000000e+00 0.000000e+00)) ((-1.135693e-06 4.097992e-04 1.450908e-10) (-3.647515e-08 3.563981e-05 -1.279104e-08) (0.000000e+00 0.000000e+00 0.000000e+00))
4.5          	((-3.866851e-03 -3.168385e-06 -1.083414e-22) (5.337451e-04 7.165273e-07 4.020385e-23) (0.000000e+00 0.000000e+00 0.000000e+00)) ((1.584193e-07 -1.933426e-04 4.451658e-10) (-3.582636e-08 2.668726e-05 -8.002018e-09) (0.000000e+00 0.000000e+00 0.000000e+00))
5            	((-8.406283e-03 -1.531750e-05 -2.355284e-22) (4.830992e-04 4.820758e-07 8.288813e-23) (0.000000e+00 0.000000e+00 0.000000e+00)) ((7.658748e-07 -4.203141e-04 2.868550e-10) (-2.410379e-08 2.415496e-05 -3.954009e-09) (0.000000e+00 0.000000e+00 0.000000e+00))
5.5          	((-3.608854e-03 -7.930313e-06 -1.011984e-22) (5.238751e-04 2.131672e-07 3.394536e-23) (0.000000e+00 0.000000e+00 0.000000e+00)) ((3.965157e-07 -1.804427e-04 -5.817476e-11) (-1.065836e-08 2.619376e-05 1.553565e-09) (0.000000e+00 0.000000e+00 0.000000e+00))
6            	((3.128744e-03 5.238567e-06 8.750803e-23) (5.611146e-04 1.884021e-08 -3.229419e-23) (0.000000e+00 0.000000e+00 0.000000e+00)) ((-2.619283e-07 1.564372e-04 -2.282041e-10) (-9.420107e-10 2.805573e-05 8.852652e-09) (0.000000e+00 0.000000e+00 0.000000e+00))
6.5          	((4.947951e-03 1.030411e-05 1.384917e-22) (5.420034e-04 -7.317734e-08 -4.904176e-23) (0.000000e+00 0.000000e+00 0.000000e+00)) ((-5.152055e-07 2.473975e-04 -1.252192e-10) (3.658867e-09 2.710017e-05 1.637873e-08) (0.000000e+00 0.000000e+00 0.000000e+00))
7            	((1.709365e-03 5.528871e-06 4.782253e-23) (4.843874e-04 -8.925173e-08 -1.640903e-23) (0.000000e+00 0.000000e+00 0.000000e+00)) ((-2.764435e-07 8.546824e-05 7.199087e-11) (4.462586e-09 2.421937e-05 2.251427e-08) (0.000000e+00 0.000000e+00 0.000000e+00))
7.5          	((-1.996003e-03 -1.426595e-06 -5.593913e-23) (4.353680e-04 -9.073438e-08 1.983688e-23) (0.000000e+00 0.000000e+00 0.000000e+00)) ((7.132977e-08 -9.980014e-05 1.570405e-10) (4.536719e-09 2.176840e-05 2.697596e-08) (0.000000e+00 0.000000e+00 0.000000e+00))
8            	((-2.587713e-03 -3.756847e-06 -7.251965e-23) (4.197804e-04 -1.404656e-07 2.500966e-23) (0.000000e+00 0.000000e+00 0.000000e+00)) ((1.878424e-07 -1.293856e-04 8.993495e-11) (7.023281e-09 2.098902e-05 3.061886e-08) (0.000000e+00 0.000000e+00 0.000000e+00))
8.5          	((-4.979267e-04 -1.154882e-06 -1.401268e-23) (4.261143e-04 -2.594377e-07 4.139463e-24) (0.000000e+00 0.000000e+00 0.000000e+00)) ((5.774411e-08 -2.489634e-05 -1.479372e-11) (1.297188e-08 2.130571e-05 3.429859e-08) (0.000000e+00 0.000000e+00 0.000000e+00))
9            	((1.490322e-03 2.232786e-06 4.165780e-23) (4.289515e-04 -4.108580e-07 -1.519831e-23) (0.000000e+00 0.000000e+00 0.000000e+00)) ((-1.116393e-07 7.451611e-05 -4.253656e-11) (2.054290e-08 2.144758e-05 3.808267e-08) (0.000000e+00 0.000000e+00 0.000000e+00))
9.5          	((1.561676e-03 3.104521e-06 4.366433e-23) (4.158525e-04 -5.345940e-07 -1.552560e-23) (0.000000e+00 0.000000e+00 0.000000e+00)) ((-1.552261e-07 7.808381e-05 1.468885e-11) (2.672970e-08 2.079262e-05 4.144020e-08) (0.000000e+00 0.000000e+00 0.000000e+00))
10           	((2.493392e-04 1.536894e-06 6.938343e-24) (3.937022e-04 -6.005348e-07 -2.494652e-24) (0.000000e+00 0.000000e+00 0.000000e+00)) ((-7.684470e-08 1.246696e-05 8.128368e-11) (3.002674e-08 1.968511e-05 4.394031e-08) (0.000000e+00 0.000000e+00 0.000000e+00))
10.5         	((-7.962260e-04 -3.049666e-07 -2.231641e-23) (3.759220e-04 -6.297942e-07 7.624120e-24) (0.000000e+00 0.000000e+00 0.000000e+00)) ((1.524833e-08 -3.981130e-05 9.353464e-11) (3.148971e-08 1.879610e-05 4.564875e-08) (0.000000e+00 0.000000e+00 0.000000e+00))
11           	((-6.890114e-04 -8.070511e-07 -1.930507e-23) (3.682478e-04 -6.667119e-07 6.367623e-24) (0.000000e+00 0.000000e+00 0.000000e+00)) ((4.035256e-08 -3.445057e-05 5.738162e-11) (3.333560e-08 1.841239e-05 4.694996e-08) (0.000000e+00 0.000000e+00 0.000000e+00))
11.5         	((1.092530e-04 -8.220797e-08 3.040566e-24) (3.661132e-04 -7.351983e-07 -1.513460e-24) (0.000000e+00 0.000000e+00 0.000000e+00)) ((4.110398e-09 5.462649e-06 2.219322e-11) (3.675992e-08 1.830566e-05 4.813094e-08) (0.000000e+00 0.000000e+00 0.000000e+00))
12           	((6.395904e-04 7.680902e-07 1.788136e-23) (3.620787e-04 -8.220709e-07 -6.607554e-24) (0.000000e+00 0.000000e+00 0.000000e+00)) ((-3.840451e-08 3.197952e-05 2.303925e-11) (4.110354e-08 1.810394e-05 4.918120e-08) (0.000000e+00 0.000000e+00 0.000000e+00))
12.5         	((4.920020e-04 9.379510e-07 1.375260e-23) (3.533688e-04 -8.975211e-07 -5.042177e-24) (0.000000e+00 0.000000e+00 0.000000e+00)) ((-4.689755e-08 2.460010e-05 5.066319e-11) (4.487605e-08 1.766844e-05 4.992846e-08) (0.000000e+00 0.000000e+00 0.000000e+00))
13           	((1.455867e-05 4.852488e-07 4.024257e-25) (3.427598e-04 -9.458451e-07 -3.448386e-25) (0.000000e+00 0.000000e+00 0.000000e+00)) ((-2.426244e-08 7.279336e-07 7.326319e-11) (4.729226e-08 1.713799e-05 5.028079e-08) (0.000000e+00 0.000000e+00 0.000000e+00))
13.5         	((-2.469358e-04 -3.375735e-08 -6.899291e-24) (3.342143e-04 -9.759872e-07 2.150695e-24) (0.000000e+00 0.000000e+00 0.000000e+00)) ((1.687867e-09 -1.234679e-05 7.229963e-11) (4.879936e-08 1.671072e-05 5.031758e-08) (0.000000e+00 0.000000e+00 0.000000e+00))
14           	((-1.178009e-04 -2.049370e-07 -3.274868e-24) (3.288904e-04 -1.007214e-06 8.246472e-25) (0.000000e+00 0.000000e+00 0.000000e+00)) ((1.024685e-08 -5.890047e-06 5.659194e-11) (5.036069e-08 1.644452e-05 5.019187e-08) (0.000000e+00 0.000000e+00 0.000000e+00))
14.5         	((1.591437e-04 -4.435823e-08 4.476050e-24) (3.249818e-04 -1.049307e-06 -1.885454e-24) (0.000000e+00 0.000000e+00 0.000000e+00)) ((2.217912e-09 7.957183e-06 4.602945e-11) (5.246535e-08 1.624909e-05 4.999183e-08) (0.000000e+00 0.000000e+00 0.000000e+00))
15           	((2.795074e-04 1.747626e-07 7.841567e-24) (3.202824e-04 -1.096618e-06 -3.017511e-24) (0.000000e+00 0.000000e+00 0.000000e+00)) ((-8.738132e-09 1.397537e-05 5.016183e-11) (5.483091e-08 1.601412e-05 4.970227e-08) (0.000000e+00 0.000000e+00 0.000000e+00))
15.5         	((1.795280e-04 2.259183e-07 5.046618e-24) (3.142810e-04 -1.137644e-06 -2.002898e-24) (0.000000e+00 0.000000e+00 0.000000e+00)) ((-1.129591e-08 8.976398e-06 6.186676e-11) (5.688219e-08 1.571405e-05 4.927145e-08) (0.000000e+00 0.000000e+00 0.000000e+00))
16           	((2.018753e-05 9.675512e-08 5.981983e-25) (3.080507e-04 -1.167197e-06 -4.466122e-25) (0.000000e+00 0.000000e+00 0.000000e+00)) ((-4.837756e-09 1.009376e-06 6.912260e-11) (5.835986e-08 1.540254e-05 4.868886e-08) (0.000000e+00 0.000000e+00 0.000000e+00))
16.5         	((-3.250451e-05 -7.619255e-08 -8.643105e-25) (3.027451e-04 -1.189376e-06 4.318021e-26) (0.000000e+00 0.000000e+00 0.000000e+00)) ((3.809628e-09 -1.625225e-06 6.719806e-11) (5.946879e-08 1.513725e-05 4.799889e-08) (0.000000e+00 0.000000e+00 0.000000e+00))
17           	((3.657044e-05 -1.622170e-07 1.075147e-24) (2.985095e-04 -1.211317e-06 -6.484571e-25) (0.000000e+00 0.000000e+00 0.000000e+00)) ((8.110849e-09 1.828522e-06 6.142737e-11) (6.056585e-08 1.492547e-05 4.725730e-08) (0.000000e+00 0.000000e+00 0.000000e+00))
17.5         	((1.246177e-04 -1.398453e-07 3.539435e-24) (2.946582e-04 -1.236047e-06 -1.502104e-24) (0.000000e+00 0.000000e+00 0.000000e+00)) ((6.992267e-09 6.230885e-06 5.902834e-11) (6.180234e-08 1.473291e-05 4.648896e-08) (0.000000e+00 0.000000e+00 0.000000e+00))
18           	((1.432623e-04 -7.947027e-08 4.060802e-24) (2.905502e-04 -1.261141e-06 -1.665910e-24) (0.000000e+00 0.000000e+00 0.000000e+00)) ((3.973513e-09 7.163117e-06 6.191999e-11) (6.305705e-08 1.452751e-05 4.568573e-08) (0.000000e+00 0.000000e+00 0.000000e+00))
18.5         	((9.622649e-05 -6.057837e-08 2.748233e-24) (2.861441e-04 -1.282702e-06 -1.195486e-24) (0.000000e+00 0.000000e+00 0.000000e+00)) ((3.028918e-09 4.811324e-06 6.657034e-11) (6.413512e-08 1.430720e-05 4.483395e-08) (0.000000e+00 0.000000e+00 0.000000e+00))
19           	((4.718563e-05 -1.054215e-07 1.383331e-24) (2.818325e-04 -1.299441e-06 -7.194158e-25) (0.000000e+00 0.000000e+00 0.000000e+00)) ((5.271074e-09 2.359282e-06 6.879899e-11) (6.497207e-08 1.409163e-05 4.393746e-08) (0.000000e+00 0.000000e+00 0.000000e+00))
19.5         	((4.187245e-05 -1.763871e-07 1.241802e-24) (2.779354e-04 -1.313155e-06 -6.759360e-25) (0.000000e+00 0.000000e+00 0.000000e+00)) ((8.819354e-09 2.093622e-06 6.790322e-11) (6.565775e-08 1.389677e-05 4.301606e-08) (0.000000e+00 0.000000e+00 0.000000e+00))
20           	((7.112963e-05 -2.229408e-07 2.064270e-24) (2.744230e-04 -1.326268e-06 -9.645608e-25) (0.000000e+00 0.000000e+00 0.000000e+00)) ((1.114704e-08 3.556481e-06 6.619369e-11) (6.631339e-08 1.372115e-05 4.208867e-08) (0.000000e+00 0.000000e+00 0.000000e+00))
20.5         	((9.650524e-05 -2.268775e-07 2.775335e-24) (2.710460e-04 -1.339559e-06 -1.207248e-24) (0.000000e+00 0.000000e+00 0.000000e+00)) ((1.134387e-08 4.825262e-06 6.605768e-11) (6.697796e-08 1.355230e-05 4.116170e-08) (0.000000e+00 0.000000e+00 0.000000e+00))
21           	((9.514372e-05 -2.104331e-07 2.738354e-24) (2.676254e-04 -1.352080e-06 -1.186598e-24) (0.000000e+00 0.000000e+00 0.000000e+00)) ((1.052166e-08 4.757186e-06 6.766577e-11) (6.760402e-08 1.338127e-05 4.023172e-08) (0.000000e+00 0.000000e+00 0.000000e+00))
21.5         	((7.618388e-05 -2.062153e-07 2.211018e-24) (2.641864e-04 -1.362649e-06 -9.980515e-25) (0.000000e+00 0.000000e+00 0.000000e+00)) ((1.031076e-08 3.809194e-06 6.954071e-11) (6.813244e-08 1.320932e-05 3.929585e-08) (0.000000e+00 0.000000e+00 0.000000e+00))
22           	((6.231267e-05 -2.279390e-07 1.827500e-24) (2.608643e-04 -1.371075e-06 -8.637722e-25) (0.000000e+00 0.000000e+00 0.000000e+00)) ((1.139695e-08 3.115634e-06 7.036501e-11) (6.855374e-08 1.304322e-05 3.835776e-08) (0.000000e+00 0.000000e+00 0.000000e+00))
22.5         	((6.444237e-05 -2.622961e-07 1.891147e-24) (2.577399e-04 -1.378099e-06 -8.864921e-25) (0.000000e+00 0.000000e+00 0.000000e+00)) ((1.311481e-08 3.222119e-06 7.014767e-11) (6.890495e-08 1.288699e-05 3.742524e-08) (0.000000e+00 0.000000e+00 0.000000e+00))
23           	((7.521680e-05 -2.875498e-07 2.194980e-24) (2.547777e-04 -1.384503e-06 -9.910214e-25) (0.000000e+00 0.000000e+00 0.000000e+00)) ((1.437749e-08 3.760840e-06 6.983140e-11) (6.922514e-08 1.273888e-05 3.650420e-08) (0.000000e+00 0.000000e+00 0.000000e+00))
23.5         	((8.153139e-05 -2.943723e-07 2.372911e-24) (2.518904e-04 -1.390459e-06 -1.049515e-24) (0.000000e+00 0.000000e+00 0.000000e+00)) ((1.471862e-08 4.076570e-06 7.017494e-11) (6.952295e-08 1.259452e-05 3.559592e-08) (0.000000e+00 0.000000e+00 0.000000e+00))
24           	((7.851770e-05 -2.917382e-07 2.290056e-24) (2.490306e-04 -1.395639e-06 -1.016861e-24) (0.000000e+00 0.000000e+00 0.000000e+00)) ((1.458691e-08 3.925885e-06 7.107297e-11) (6.978194e-08 1.245153e-05 3.469907e-08) (0.000000e+00 0.000000e+00 0.000000e+00))
24.5         	((7.150884e-05 -2.941281e-07 2.096313e-24) (2.462174e-04 -1.399732e-06 -9.469067e-25) (0.000000e+00 0.000000e+00 0.000000e+00)) ((1.470640e-08 3.575442e-06 7.193520e-11) (6.998660e-08 1.231087e-05 3.381323e-08) (0.000000e+00 0.000000e+00 0.000000e+00))
25           	((6.790988e-05 -3.074586e-07 1.998408e-24) (2.434940e-04 -1.402779e-06 -9.116030e-25) (0.000000e+00 0.000000e+00 0.000000e+00)) ((1.537293e-08 3.395494e-06 7.235900e-11) (7.013893e-08 1.217470e-05 3.294023e-08) (0.000000e+00 0.000000e+00 0.000000e+00))
25.5         	((6.966103e-05 -3.257276e-07 2.049761e-24) (2.408769e-04 -1.405071e-06 -9.284002e-25) (0.000000e+00 0.000000e+00 0.000000e+00)) ((1.628638e-08 3.483052e-06 7.245738e-11) (7.025357e-08 1.204385e-05 3.208272e-08) (0.000000e+00 0.000000e+00 0.000000e+00))
26           	((7.313054e-05 -3.395041e-07 2.148400e-24) (2.383459e-04 -1.406858e-06 -9.609402e-25) (0.000000e+00 0.000000e+00 0.000000e+00)) ((1.697521e-08 3.656527e-06 7.258891e-11) (7.034291e-08 1.191730e-05 3.124226e-08) (0.000000e+00 0.000000e+00 0.000000e+00))
26.5         	((7.422209e-05 -3.453593e-07 2.180082e-24) (2.358711e-04 -1.408178e-06 -9.695841e-25) (0.000000e+00 0.000000e+00 0.000000e+00)) ((1.726797e-08 3.711104e-06 7.297187e-11) (7.040890e-08 1.179355e-05 3.041880e-08) (0.000000e+00 0.000000e+00 0.000000e+00))
27           	((7.233378e-05 -3.476144e-07 2.128530e-24) (2.334404e-04 -1.408938e-06 -9.493506e-25) (0.000000e+00 0.000000e+00 0.000000e+00)) ((1.738072e-08 3.616689e-06 7.350232e-11) (7.044691e-08 1.167202e-05 2.961170e-08) (0.000000e+00 0.000000e+00 0.000000e+00))
27.5         	((6.982863e-05 -3.522816e-07 2.060050e-24) (2.310625e-04 -1.409081e-06 -9.237459e-25) (0.000000e+00 0.000000e+00 0.000000e+00)) ((1.761408e-08 3.491431e-06 7.399106e-11) (7.045405e-08 1.155313e-05 2.882088e-08) (0.000000e+00 0.000000e+00 0.000000e+00))
28           	((6.891963e-05 -3.613451e-07 2.036297e-24) (2.287496e-04 -1.408661e-06 -9.140812e-25) (0.000000e+00 0.000000e+00 0.000000e+00)) ((1.806725e-08 3.445981e-06 7.431107e-11) (7.043306e-08 1.143748e-05 2.804690e-08) (0.000000e+00 0.000000e+00 0.000000e+00))
28.5         	((6.965177e-05 -3.716610e-07 2.058190e-24) (2.265028e-04 -1.407793e-06 -9.202733e-25) (0.000000e+00 0.000000e+00 0.000000e+00)) ((1.858305e-08 3.482589e-06 7.454145e-11) (7.038965e-08 1.132514e-05 2.729043e-08) (0.000000e+00 0.000000e+00 0.000000e+00))
29           	((7.053882e-05 -3.795978e-07 2.084069e-24) (2.243124e-04 -1.406559e-06 -9.276170e-25) (0.000000e+00 0.000000e+00 0.000000e+00)) ((1.897989e-08 3.526941e-06 7.477583e-11) (7.032793e-08 1.121562e-05 2.655162e-08) (0.000000e+00 0.000000e+00 0.000000e+00))
29.5         	((7.041336e-05 -3.839839e-07 2.081460e-24) (2.221682e-04 -1.404974e-06 -9.249312e-25) (0.000000e+00 0.000000e+00 0.000000e+00)) ((1.919919e-08 3.520668e-06 7.510665e-11) (7.024870e-08 1.110841e-05 2.583012e-08) (0.000000e+00 0.000000e+00 0.000000e+00))
30           	((6.941990e-05 -3.869574e-07 2.054625e-24) (2.200667e-04 -1.403023e-06 -9.139257e-25) (0.000000e+00 0.000000e+00 0.000000e+00)) ((1.934787e-08 3.470995e-06 7.548837e-11) (7.015116e-08 1.100334e-05 2.512550e-08) (0.000000e+00 0.000000e+00 0.000000e+00))
30.5         	((6.847144e-05 -3.913491e-07 2.029130e-24) (2.180109e-04 -1.400711e-06 -9.035824e-25) (0.000000e+00 0.000000e+00 0.000000e+00)) ((1.956745e-08 3.423572e-06 7.584079e-11) (7.003554e-08 1.090055e-05 2.443754e-08) (0.000000e+00 0.000000e+00 0.000000e+00))
31           	((6.816121e-05 -3.976648e-07 2.021453e-24) (2.160034e-04 -1.398076e-06 -8.995457e-25) (0.000000e+00 0.000000e+00 0.000000e+00)) ((1.988324e-08 3.408061e-06 7.612827e-11) (6.990379e-08 1.080017e-05 2.376624e-08) (0.000000e+00 0.000000e+00 0.000000e+00))
31.5         	((6.830962e-05 -4.043567e-07 2.026451e-24) (2.140425e-04 -1.395167e-06 -8.998987e-25) (0.000000e+00 0.000000e+00 0.000000e+00)) ((2.021783e-08 3.415481e-06 7.638066e-11) (6.975835e-08 1.070212e-05 2.311154e-08) (0.000000e+00 0.000000e+00 0.000000e+00))
32           	((6.837041e-05 -4.096641e-07 2.028842e-24) (2.121237e-04 -1.392016e-06 -8.992890e-25) (0.000000e+00 0.000000e+00 0.000000e+00)) ((2.048321e-08 3.418520e-06 7.664746e-11) (6.960082e-08 1.060618e-05 2.247319e-08) (0.000000e+00 0.000000e+00 0.000000e+00))
32.5         	((6.805337e-05 -4.134622e-07 2.020596e-24) (2.102432e-04 -1.388635e-06 -8.949811e-25) (0.000000e+00 0.000000e+00 0.000000e+00)) ((2.067311e-08 3.402668e-06 7.694366e-11) (6.943174e-08 1.051216e-05 2.185078e-08) (0.000000e+00 0.000000e+00 0.000000e+00))
33           	((6.751398e-05 -4.168275e-07 2.006133e-24) (2.083997e-04 -1.385028e-06 -8.885790e-25) (0.000000e+00 0.000000e+00 0.000000e+00)) ((2.084137e-08 3.375699e-06 7.725195e-11) (6.925139e-08 1.041999e-05 2.124394e-08) (0.000000e+00 0.000000e+00 0.000000e+00))
33.5         	((6.707060e-05 -4.206325e-07 1.994360e-24) (2.065936e-04 -1.381208e-06 -8.831920e-25) (0.000000e+00 0.000000e+00 0.000000e+00)) ((2.103162e-08 3.353530e-06 7.754883e-11) (6.906040e-08 1.032968e-05 2.065238e-08) (0.000000e+00 0.000000e+00 0.000000e+00))
34           	((6.685747e-05 -4.249887e-07 1.988984e-24) (2.048249e-04 -1.377198e-06 -8.800713e-25) (0.000000e+00 0.000000e+00 0.000000e+00)) ((2.124943e-08 3.342874e-06 7.782534e-11) (6.885989e-08 1.024124e-05 2.007584e-08) (0.000000e+00 0.000000e+00 0.000000e+00))
34.5         	((6.675753e-05 -4.293499e-07 1.986684e-24) (2.030919e-04 -1.373020e-06 -8.780175e-25) (0.000000e+00 0.000000e+00 0.000000e+00)) ((2.146750e-08 3.337876e-06 7.808688e-11) (6.865099e-08 1.015459e-05 1.951405e-08) (0.000000e+00 0.000000e+00 0.000000e+00))
35           	((6.658823e-05 -4.331198e-07 1.982365e-24) (2.013925e-04 -1.368690e-06 -8.752613e-25) (0.000000e+00 0.000000e+00 0.000000e+00)) ((2.165599e-08 3.329412e-06 7.835194e-11) (6.843452e-08 1.006962e-05 1.896668e-08) (0.000000e+00 0.000000e+00 0.000000e+00))
35.5         	((6.629165e-05 -4.361935e-07 1.974445e-24) (1.997249e-04 -1.364219e-06 -8.712750e-25) (0.000000e+00 0.000000e+00 0.000000e+00)) ((2.180967e-08 3.314583e-06 7.862857e-11) (6.821095e-08 9.986243e-06 1.843333e-08) (0.000000e+00 0.000000e+00 0.000000e+00))
36           	((6.594963e-05 -4.390388e-07 1.965249e-24) (1.980883e-04 -1.359613e-06 -8.668900e-25) (0.000000e+00 0.000000e+00 0.000000e+00)) ((2.195194e-08 3.297481e-06 7.891087e-11) (6.798067e-08 9.904414e-06 1.791368e-08) (0.000000e+00 0.000000e+00 0.000000e+00))
36.5         	((6.566455e-05 -4.420729e-07 1.957625e-24) (1.964823e-04 -1.354885e-06 -8.630900e-25) (0.000000e+00 0.000000e+00 0.000000e+00)) ((2.210365e-08 3.283227e-06 7.918934e-11) (6.774424e-08 9.824115e-06 1.740739e-08) (0.000000e+00 0.000000e+00 0.000000e+00))
37           	((6.545726e-05 -4.452098e-07 1.952135e-24) (1.949063e-04 -1.350046e-06 -8.600519e-25) (0.000000e+00 0.000000e+00 0.000000e+00)) ((2.226049e-08 3.272863e-06 7.945931e-11) (6.750231e-08 9.745313e-06 1.691417e-08) (0.000000e+00 0.000000e+00 0.000000e+00))
37.5         	((6.527312e-05 -4.481636e-07 1.947246e-24) (1.933590e-04 -1.345109e-06 -8.572341e-25) (0.000000e+00 0.000000e+00 0.000000e+00)) ((2.240818e-08 3.263656e-06 7.972303e-11) (6.725545e-08 9.667951e-06 1.643369e-08) (0.000000e+00 0.000000e+00 0.000000e+00))
38           	((6.505596e-05 -4.508017e-07 1.941393e-24) (1.918394e-04 -1.340083e-06 -8.540968e-25) (0.000000e+00 0.000000e+00 0.000000e+00)) ((2.254008e-08 3.252798e-06 7.998770e-11) (6.700415e-08 9.591968e-06 1.596563e-08) (0.000000e+00 0.000000e+00 0.000000e+00))
38.5         	((6.480054e-05 -4.531680e-07 1.934445e-24) (1.903463e-04 -1.334975e-06 -8.506021e-25) (0.000000e+00 0.000000e+00 0.000000e+00)) ((2.265840e-08 3.240027e-06 8.025740e-11) (6.674876e-08 9.517315e-06 1.550966e-08) (0.000000e+00 0.000000e+00 0.000000e+00))
39           	((6.454169e-05 -4.554319e-07 1.927381e-24) (1.888792e-04 -1.329793e-06 -8.470926e-25) (0.000000e+00 0.000000e+00 0.000000e+00)) ((2.277160e-08 3.227084e-06 8.053202e-11) (6.648964e-08 9.443959e-06 1.506546e-08) (0.000000e+00 0.000000e+00 0.000000e+00))
39.5         	((6.430951e-05 -4.576451e-07 1.921042e-24) (1.874374e-04 -1.324543e-06 -8.438574e-25) (0.000000e+00 0.000000e+00 0.000000e+00)) ((2.288225e-08 3.215475e-06 8.080534e-11) (6.622717e-08 9.371869e-06 1.463273e-08) (0.000000e+00 0.000000e+00 0.000000e+00))
40           	((6.410265e-05 -4.598283e-07 1.915384e-24) (1.860203e-04 -1.319234e-06 -8.408757e-25) (0.000000e+00 0.000000e+00 0.000000e+00)) ((2.299141e-08 3.205132e-06 8.107532e-11) (6.596172e-08 9.301014e-06 1.421118e-08) (0.000000e+00 0.000000e+00 0.000000e+00))
40.5         	((6.389914e-05 -4.618627e-07 1.909790e-24) (1.846270e-04 -1.313873e-06 -8.379305e-25) (0.000000e+00 0.000000e+00 0.000000e+00)) ((2.309314e-08 3.194957e-06 8.134408e-11) (6.569363e-08 9.231352e-06 1.380051e-08) (0.000000e+00 0.000000e+00 0.000000e+00))
41           	((6.368333e-05 -4.636779e-07 1.903829e-24) (1.832569e-04 -1.308464e-06 -8.348740e-25) (0.000000e+00 0.000000e+00 0.000000e+00)) ((2.318390e-08 3.184166e-06 8.161281e-11) (6.542319e-08 9.162844e-06 1.340044e-08) (0.000000e+00 0.000000e+00 0.000000e+00))
41.5         	((6.345825e-05 -4.654113e-07 1.897588e-24) (1.819091e-04 -1.303013e-06 -8.317384e-25) (0.000000e+00 0.000000e+00 0.000000e+00)) ((2.327057e-08 3.172913e-06 8.188491e-11) (6.515067e-08 9.095456e-06 1.301067e-08) (0.000000e+00 0.000000e+00 0.000000e+00))
42           	((6.323710e-05 -4.671342e-07 1.891439e-24) (1.805832e-04 -1.297527e-06 -8.286530e-25) (0.000000e+00 0.000000e+00 0.000000e+00)) ((2.335671e-08 3.161855e-06 8.215949e-11) (6.487634e-08 9.029160e-06 1.263094e-08) (0.000000e+00 0.000000e+00 0.000000e+00))
42.5         	((6.302761e-05 -4.687261e-07 1.885601e-24) (1.792786e-04 -1.292009e-06 -8.256925e-25) (0.000000e+00 0.000000e+00 0.000000e+00)) ((2.343630e-08 3.151380e-06 8.243442e-11) (6.460044e-08 8.963930e-06 1.226098e-08) (0.000000e+00 0.000000e+00 0.000000e+00))
43           	((6.282657e-05 -4.703381e-07 1.879978e-24) (1.779947e-04 -1.286464e-06 -8.228200e-25) (0.000000e+00 0.000000e+00 0.000000e+00)) ((2.351690e-08 3.141328e-06 8.270834e-11) (6.432321e-08 8.899737e-06 1.190052e-08) (0.000000e+00 0.000000e+00 0.000000e+00))
43.5         	((6.262608e-05 -4.718849e-07 1.874348e-24) (1.767310e-04 -1.280898e-06 -8.199573e-25) (0.000000e+00 0.000000e+00 0.000000e+00)) ((2.359424e-08 3.131304e-06 8.298292e-11) (6.404489e-08 8.836550e-06 1.154932e-08) (0.000000e+00 0.000000e+00 0.000000e+00))
44           	((6.242245e-05 -4.734393e-07 1.868613e-24) (1.754869e-04 -1.275313e-06 -8.170721e-25) (0.000000e+00 0.000000e+00 0.000000e+00)) ((2.367196e-08 3.121123e-06 8.325806e-11) (6.376567e-08 8.774343e-06 1.120712e-08) (0.000000e+00 0.000000e+00 0.000000e+00))
44.5         	((6.221802e-05 -4.748950e-07 1.862842e-24) (1.742618e-04 -1.269715e-06 -8.141891e-25) (0.000000e+00 0.000000e+00 0.000000e+00)) ((2.374475e-08 3.110901e-06 8.353626e-11) (6.348575e-08 8.713089e-06 1.087369e-08) (0.000000e+00 0.000000e+00 0.000000e+00))
45           	((6.201727e-05 -4.763551e-07 1.857156e-24) (1.730553e-04 -1.264106e-06 -8.113476e-25) (0.000000e+00 0.000000e+00 0.000000e+00)) ((2.381775e-08 3.100863e-06 8.381559e-11) (6.320528e-08 8.652765e-06 1.054879e-08) (0.000000e+00 0.000000e+00 0.000000e+00))
45.5         	((6.182178e-05 -4.777526e-07 1.851604e-24) (1.718669e-04 -1.258488e-06 -8.085651e-25) (0.000000e+00 0.000000e+00 0.000000e+00)) ((2.388763e-08 3.091089e-06 8.409678e-11) (6.292442e-08 8.593347e-06 1.023219e-08) (0.000000e+00 0.000000e+00 0.000000e+00))
46           	((6.162967e-05 -4.790001e-07 1.846135e-24) (1.706963e-04 -1.252866e-06 -8.058257e-25) (0.000000e+00 0.000000e+00 0.000000e+00)) ((2.395000e-08 3.081483e-06 8.437887e-11) (6.264331e-08 8.534814e-06 9.923669e-09) (0.000000e+00 0.000000e+00 0.000000e+00))
46.5         	((6.143858e-05 -4.800658e-07 1.840692e-24) (1.695429e-04 -1.247241e-06 -8.031118e-25) (0.000000e+00 0.000000e+00 0.000000e+00)) ((2.400329e-08 3.071929e-06 8.466073e-11) (6.236204e-08 8.477143e-06 9.623016e-09) (0.000000e+00 0.000000e+00 0.000000e+00))
47           	((6.124758e-05 -4.809962e-07 1.835242e-24) (1.684062e-04 -1.241614e-06 -8.004089e-25) (0.000000e+00 0.000000e+00 0.000000e+00)) ((2.404981e-08 3.062379e-06 8.494439e-11) (6.208070e-08 8.420310e-06 9.330020e-09) (0.000000e+00 0.000000e+00 0.000000e+00))
47.5         	((6.105787e-05 -4.818726e-07 1.829817e-24) (1.672860e-04 -1.235988e-06 -7.977267e-25) (0.000000e+00 0.000000e+00 0.000000e+00)) ((2.409363e-08 3.052894e-06 8.522912e-11) (6.179941e-08 8.364298e-06 9.044479e-09) (0.000000e+00 0.000000e+00 0.000000e+00))
48           	((6.087071e-05 -4.827422e-07 1.824449e-24) (1.661817e-04 -1.230366e-06 -7.950731e-25) (0.000000e+00 0.000000e+00 0.000000e+00)) ((2.413711e-08 3.043536e-06 8.551704e-11) (6.151831e-08 8.309085e-06 8.766195e-09) (0.000000e+00 0.000000e+00 0.000000e+00))
48.5         	((6.068642e-05 -4.836159e-07 1.819151e-24) (1.650931e-04 -1.224750e-06 -7.924535e-25) (0.000000e+00 0.000000e+00 0.000000e+00)) ((2.418080e-08 3.034321e-06 8.580637e-11) (6.123750e-08 8.254653e-06 8.494977e-09) (0.000000e+00 0.000000e+00 0.000000e+00))
49           	((6.050421e-05 -4.844268e-07 1.813903e-24) (1.640197e-04 -1.219142e-06 -7.898631e-25) (0.000000e+00 0.000000e+00 0.000000e+00)) ((2.422134e-08 3.025210e-06 8.609596e-11) (6.095710e-08 8.200984e-06 8.230641e-09) (0.000000e+00 0.000000e+00 0.000000e+00))
49.5         	((6.032330e-05 -4.851769e-07 1.808687e-24) (1.629612e-04 -1.213543e-06 -7.872956e-25) (0.000000e+00 0.000000e+00 0.000000e+00)) ((2.425884e-08 3.016165e-06 8.638556e-11) (6.067716e-08 8.148060e-06 7.973006e-09) (0.000000e+00 0.000000e+00 0.000000e+00))
50           	((6.014340e-05 -4.858347e-07 1.803488e-24) (1.619172e-04 -1.207955e-06 -7.847438e-25) (0.000000e+00 0.000000e+00 0.000000e+00)) ((2.429174e-08 3.007170e-06 8.667852e-11) (6.039776e-08 8.095862e-06 7.721896e-09) (0.000000e+00 0.000000e+00 0.000000e+00))
50.5         	((5.996508e-05 -4.864655e-07 1.798328e-24) (1.608875e-04 -1.202379e-06 -7.822152e-25) (0.000000e+00 0.000000e+00 0.000000e+00)) ((2.432328e-08 2.998254e-06 8.697314e-11) (6.011897e-08 8.044376e-06 7.477142e-09) (0.000000e+00 0.000000e+00 0.000000e+00))
51           	((5.978874e-05 -4.869580e-07 1.793219e-24) (1.598717e-04 -1.196817e-06 -7.797147e-25) (0.000000e+00 0.000000e+00 0.000000e+00)) ((2.434790e-08 2.989437e-06 8.726815e-11) (5.984085e-08 7.993584e-06 7.238580e-09) (0.000000e+00 0.000000e+00 0.000000e+00))
51.5         	((5.961428e-05 -4.873950e-07 1.788154e-24) (1.588694e-04 -1.191269e-06 -7.772386e-25) (0.000000e+00 0.000000e+00 0.000000e+00)) ((2.436975e-08 2.980714e-06 8.756473e-11) (5.956344e-08 7.943472e-06 7.006049e-09) (0.000000e+00 0.000000e+00 0.000000e+00))
52           	((5.944133e-05 -4.878019e-07 1.783124e-24) (1.578805e-04 -1.185736e-06 -7.747832e-25) (0.000000e+00 0.000000e+00 0.000000e+00)) ((2.439009e-08 2.972066e-06 8.786383e-11) (5.928681e-08 7.894023e-06 6.779396e-09) (0.000000e+00 0.000000e+00 0.000000e+00))
52.5         	((5.926969e-05 -4.882063e-07 1.778125e-24) (1.569045e-04 -1.180220e-06 -7.723466e-25) (0.000000e+00 0.000000e+00 0.000000e+00)) ((2.441032e-08 2.963485e-06 8.816513e-11) (5.901102e-08 7.845224e-06 6.558468e-09) (0.000000e+00 0.000000e+00 0.000000e+00))
53           	((5.909950e-05 -4.887267e-07 1.773158e-24) (1.559412e-04 -1.174723e-06 -7.699285e-25) (0.000000e+00 0.000000e+00 0.000000e+00)) ((2.443633e-08 2.954975e-06 8.846606e-11) (5.873615e-08 7.797061e-06 6.343121e-09) (0.000000e+00 0.000000e+00 0.000000e+00))
53.5         	((5.893079e-05 -4.892303e-07 1.768225e-24) (1.549904e-04 -1.169245e-06 -7.675302e-25) (0.000000e+00 0.000000e+00 0.000000e+00)) ((2.446152e-08 2.946539e-06 8.876823e-11) (5.846227e-08 7.749519e-06 6.133213e-09) (0.000000e+00 0.000000e+00 0.000000e+00))
54           	((5.876370e-05 -4.896486e-07 1.763336e-24) (1.540517e-04 -1.163788e-06 -7.651560e-25) (0.000000e+00 0.000000e+00 0.000000e+00)) ((2.448243e-08 2.938185e-06 8.907195e-11) (5.818939e-08 7.702586e-06 5.928606e-09) (0.000000e+00 0.000000e+00 0.000000e+00))
54.5         	((5.859800e-05 -4.899581e-07 1.758481e-24) (1.531250e-04 -1.158350e-06 -7.628016e-25) (0.000000e+00 0.000000e+00 0.000000e+00)) ((2.449791e-08 2.929900e-06 8.937816e-11) (5.791752e-08 7.656248e-06 5.729166e-09) (0.000000e+00 0.000000e+00 0.000000e+00))
55           	((5.843371e-05 -4.902162e-07 1.753663e-24) (1.522099e-04 -1.152934e-06 -7.604702e-25) (0.000000e+00 0.000000e+00 0.000000e+00)) ((2.451081e-08 2.921685e-06 8.968590e-11) (5.764669e-08 7.610494e-06 5.534763e-09) (0.000000e+00 0.000000e+00 0.000000e+00))
55.5         	((5.827080e-05 -4.904605e-07 1.748884e-24) (1.513062e-04 -1.147538e-06 -7.581606e-25) (0.000000e+00 0.000000e+00 0.000000e+00)) ((2.452303e-08 2.913540e-06 8.999448e-11) (5.737692e-08 7.565310e-06 5.345272e-09) (0.000000e+00 0.000000e+00 0.000000e+00))